# vtk DataFile Version 3.0
Navier-Stokes 2D - Step 100 Time 0.1
ASCII
DATASET STRUCTURED_POINTS
DIMENSIONS 64 64 1
ORIGIN 0 0 0
SPACING 0.015873 0.015873 1
POINT_DATA 4096
VECTORS velocity double
0 0 0
0 0 0
0 0 0
0 0 0
0 0 0
0 0 0
0 0 0
0 0 0
0 0 0
0 0 0
0 0 0
0 0 0
0 0 0
0 0 0
0 0 0
0 0 0
0 0 0
0 0 0
0 0 0
0 0 0
0 0 0
0 0 0
0 0 0
0 0 0
0 0 0
0 0 0
0 0 0
0 0 0
0 0 0
0 0 0
0 0 0
0 0 0
0 0 0
0 0 0
0 0 0
0 0 0
0 0 0
0 0 0
0 0 0
0 0 0
0 0 0
0 0 0
0 0 0
0 0 0
0 0 0
0 0 0
0 0 0
0 0 0
0 0 0
0 0 0
0 0 0
0 0 0
0 0 0
0 0 0
0 0 0
0 0 0
0 0 0
0 0 0
0 0 0
0 0 0
0 0 0
0 0 0
0 0 0
0 0 0
0 0 0
0.00268318 0.0027242 0
0.00151244 0.0030676 0
0.00164013 0.00307787 0
0.00134133 0.0030131 0
0.00115092 0.0029577 0
0.000927854 0.00289219 0
0.000710262 0.00282043 0
0.000497919 0.00274418 0
0.000289957 0.00266503 0
8.82315e-005 0.00258367 0
-0.00010812 0.00250014 0
-0.000298473 0.00241451 0
-0.000482701 0.00232679 0
-0.000660365 0.00223705 0
-0.000831085 0.00214536 0
-0.000994437 0.00205182 0
-0.00115001 0.00195652 0
-0.0012974 0.00185956 0
-0.00143622 0.00176105 0
-0.00156612 0.00166108 0
-0.00168673 0.00155976 0
-0.00179776 0.00145719 0
-0.00189891 0.00135348 0
-0.0019899 0.00124874 0
-0.0020705 0.00114308 0
-0.00214051 0.00103659 0
-0.00219973 0.000929389 0
-0.00224801 0.000821586 0
-0.00228522 0.000713287 0
-0.00231127 0.0006046 0
-0.00232607 0.000495635 0
-0.0023296 0.0003865 0
-0.00232183 0.000277304 0
-0.00230279 0.000168157 0
-0.00227251 5.91684e-005 0
-0.00223108 -4.95533e-005 0
-0.0021786 -0.000157898 0
-0.00211522 -0.000265757 0
-0.00204109 -0.000373019 0
-0.00195641 -0.000479575 0
-0.00186143 -0.000585316 0
-0.00175641 -0.00069013 0
-0.00164165 -0.000793907 0
-0.00151749 -0.000896535 0
-0.00138429 -0.000997903 0
-0.00124247 -0.00109789 0
-0.00109247 -0.0011964 0
-0.000934785 -0.00129328 0
-0.000769946 -0.00138843 0
-0.000598552 -0.00148169 0
-0.000421208 -0.00157293 0
-0.000238753 -0.00166193 0
-5.17035e-005 -0.00174846 0
0.000138155 -0.00183202 0
0.000331247 -0.00191191 0
0.00052148 -0.00198604 0
0.000711898 -0.00205178 0
0.000885586 -0.0021053 0
0.00103355 -0.00214863 0
0.00121972 -0.00220771 0
0.00112869 -0.00225169 0
0.00201074 -0.00206545 0
0 0 0
0 0 0
0.00294573 0.00169274 0
0.00159531 0.00200697 0
0.00176027 0.0020643 0
0.00134553 0.00205124 0
0.00103756 0.00203687 0
0.000678545 0.00200362 0
0.000320715 0.00195781 0
-3.26391e-005 0.00190582 0
-0.000381085 0.00185081 0
-0.000720963 0.00179424 0
-0.00105266 0.00173613 0
-0.00137484 0.00167642 0
-0.001687 0.00161502 0
-0.00198827 0.00155189 0
-0.00227792 0.00148705 0
-0.00255519 0.00142055 0
-0.00281933 0.00135245 0
-0.00306966 0.00128283 0
-0.00330552 0.00121177 0
-0.00352627 0.00113937 0
-0.00373133 0.00106572 0
-0.00392018 0.000990907 0
-0.00409231 0.00091504 0
-0.00424729 0.000838216 0
-0.00438471 0.000760535 0
-0.00450423 0.000682099 0
-0.00460554 0.000603011 0
-0.00468838 0.000523371 0
-0.00475254 0.000443285 0
-0.00479787 0.000362854 0
-0.00482425 0.000282184 0
-0.00483163 0.000201377 0
-0.00481997 0.00012054 0
-0.00478933 3.97759e-005 0
-0.00473978 -4.08079e-005 0
-0.00467146 -0.000121105 0
-0.00458455 -0.000201009 0
-0.00447929 -0.00028041 0
-0.00435598 -0.000359201 0
-0.00421495 -0.00043727 0
-0.0040566 -0.000514506 0
-0.00388139 -0.000590796 0
-0.00368983 -0.000666027 0
-0.00348249 -0.00074008 0
-0.00326001 -0.000812837 0
-0.00302308 -0.000884174 0
-0.00277247 -0.000953962 0
-0.00250901 -0.00102206 0
-0.00223364 -0.00108833 0
-0.00194737 -0.0011526 0
-0.00165126 -0.00121466 0
-0.00134674 -0.00127425 0
-0.00103482 -0.00133103 0
-0.000718249 -0.00138418 0
-0.0003968 -0.00143257 0
-7.87452e-005 -0.00147257 0
0.0002408 -0.00150001 0
0.000540134 -0.00150683 0
0.000813574 -0.0014992 0
0.0011238 -0.00150562 0
0.00107928 -0.00152246 0
0.00211316 -0.00133818 0
0 0 0
0 0 0
0.00288164 0.00208741 0
0.00144497 0.0026556 0
0.00152363 0.0028009 0
0.00100211 0.00284682 0
0.000594324 0.00285611 0
0.000133361 0.00282714 0
-0.000325393 0.00277356 0
-0.000778868 0.00270743 0
-0.00122621 0.00263507 0
-0.00166306 0.00255913 0
-0.00208948 0.00248013 0
-0.00250374 0.00239815 0
-0.00290504 0.00231315 0
-0.00329228 0.00222514 0
-0.00366449 0.00213417 0
-0.00402069 0.00204033 0
-0.00435998 0.00194376 0
-0.00468146 0.00184458 0
-0.0049843 0.00174296 0
-0.00526773 0.00163904 0
-0.00553102 0.00153299 0
-0.00577351 0.00142498 0
-0.00599457 0.00131518 0
-0.00619367 0.00120376 0
-0.0063703 0.00109089 0
-0.00652403 0.000976759 0
-0.00665449 0.00086153 0
-0.00676136 0.000745383 0
-0.00684438 0.000628496 0
-0.00690337 0.000511047 0
-0.00693818 0.000393213 0
-0.00694875 0.000275173 0
-0.00693505 0.000157109 0
-0.00689713 3.92009e-005 0
-0.00683511 -7.83693e-005 0
-0.00674916 -0.000195418 0
-0.0066395 -0.000311759 0
-0.00650645 -0.000427205 0
-0.00635035 -0.000541569 0
-0.00617165 -0.000654657 0
-0.00597084 -0.000766277 0
-0.00574848 -0.00087623 0
-0.00550522 -0.000984317 0
-0.00524176 -0.00109033 0
-0.00495889 -0.00119406 0
-0.00465747 -0.00129529 0
-0.00433843 -0.00139379 0
-0.00400281 -0.00148931 0
-0.00365171 -0.00158159 0
-0.00328638 -0.00167032 0
-0.00290805 -0.00175514 0
-0.00251836 -0.0018356 0
-0.00211844 -0.00191107 0
-0.00171122 -0.00198039 0
-0.00129614 -0.00204166 0
-0.000881494 -0.00209026 0
-0.0004603 -0.00211973 0
-5.33135e-005 -0.00212042 0
0.000338294 -0.00209725 0
0.000777606 -0.00207789 0
0.000864306 -0.00206054 0
0.00199704 -0.00170937 0
0 0 0
0 0 0
0.00277537 0.00214017 0
0.00129962 0.00284723 0
0.00132738 0.00307707 0
0.000745255 0.00317956 0
0.00027861 0.00321693 0
-0.000242438 0.00319896 0
-0.000760637 0.00314646 0
-0.00127329 0.00307617 0
-0.00177922 0.00299705 0
-0.00227366 0.00291271 0
-0.00275639 0.00282412 0
-0.00322541 0.0027315 0
-0.00367973 0.00263486 0
-0.00411806 0.00253423 0
-0.0045393 0.00242971 0
-0.00494235 0.00232143 0
-0.00532617 0.00220953 0
-0.00568979 0.00209422 0
-0.00603228 0.00197569 0
-0.00635276 0.00185414 0
-0.00665045 0.00172979 0
-0.00692459 0.00160288 0
-0.00717452 0.00147361 0
-0.00739962 0.00134223 0
-0.00759935 0.00120896 0
-0.00777323 0.00107404 0
-0.00792085 0.000937698 0
-0.00804186 0.000800168 0
-0.00813599 0.000661687 0
-0.00820302 0.00052249 0
-0.0082428 0.000382813 0
-0.00825525 0.000242894 0
-0.00824036 0.000102972 0
-0.00819819 -3.67135e-005 0
-0.00812886 -0.00017592 0
-0.00803255 -0.000314404 0
-0.00790954 -0.000451918 0
-0.00776014 -0.000588213 0
-0.00758476 -0.000723037 0
-0.00738388 -0.000856132 0
-0.00715805 -0.000987241 0
-0.00690788 -0.0011161 0
-0.00663408 -0.00124243 0
-0.00633743 -0.00136597 0
-0.00601877 -0.00148643 0
-0.00567906 -0.00160351 0
-0.00531931 -0.00171691 0
-0.00494062 -0.00182631 0
-0.00454417 -0.00193136 0
-0.00413128 -0.00203165 0
-0.00370323 -0.00212676 0
-0.00326167 -0.00221611 0
-0.00280764 -0.00229897 0
-0.00234398 -0.00237405 0
-0.00186963 -0.00243917 0
-0.00139247 -0.00248939 0
-0.000903926 -0.00251695 0
-0.000423906 -0.0025111 0
4.78181e-005 -0.00247339 0
0.000569627 -0.00242691 0
0.000733487 -0.00235749 0
0.00189775 -0.00188167 0
0 0 0
0 0 0
0.00271117 0.00235053 0
0.00122442 0.00322007 0
0.00121945 0.00355083 0
0.000603681 0.00371319 0
0.00010497 0.00377893 0
-0.00044831 0.00377034 0
-0.000998001 0.0037168 0
-0.00154209 0.00363974 0
-0.00207923 0.00355066 0
-0.0026045 0.00345422 0
-0.0031175 0.00335187 0
-0.00361603 0.00324402 0
-0.00409897 0.0031308 0
-0.00456491 0.00301232 0
-0.00501265 0.00288873 0
-0.00544102 0.00276021 0
-0.00584891 0.002627 0
-0.00623528 0.00248933 0
-0.00659915 0.00234747 0
-0.00693961 0.0022017 0
-0.00725581 0.0020523 0
-0.00754698 0.00189957 0
-0.0078124 0.0017438 0
-0.00805145 0.0015853 0
-0.00826356 0.00142435 0
-0.00844822 0.00126128 0
-0.008605 0.00109638 0
-0.00873354 0.000929951 0
-0.00883356 0.00076231 0
-0.00890483 0.000593761 0
-0.0089472 0.000424609 0
-0.00896059 0.000255165 0
-0.00894498 8.57386e-005 0
-0.00890043 -8.33572e-005 0
-0.00882707 -0.000251808 0
-0.00872509 -0.000419295 0
-0.00859477 -0.000585498 0
-0.00843645 -0.000750092 0
-0.00825055 -0.000912747 0
-0.00803757 -0.00107313 0
-0.00779806 -0.0012309 0
-0.00753268 -0.00138572 0
-0.00724216 -0.00153723 0
-0.00692729 -0.00168507 0
-0.00658896 -0.00182889 0
-0.00622814 -0.00196829 0
-0.00584587 -0.00210289 0
-0.00544327 -0.00223228 0
-0.00502156 -0.00235603 0
-0.00458202 -0.00247365 0
-0.00412594 -0.00258464 0
-0.00365492 -0.00268835 0
-0.00316989 -0.002784 0
-0.00267355 -0.00287028 0
-0.00216452 -0.00294488 0
-0.00165041 -0.00300271 0
-0.00112199 -0.00303484 0
-0.000599042 -0.00302879 0
-8.20099e-005 -0.00297996 0
0.000482737 -0.00290235 0
0.000683775 -0.00276093 0
0.00184468 -0.0021382 0
0 0 0
0 0 0
0.00265726 0.0025477 0
0.00117305 0.00357438 0
0.00114876 0.00400832 0
0.000514679 0.00422982 0
-1.73287e-006 0.00432323 0
-0.000572885 0.00432348 0
-0.00113973 0.00426878 0
-0.00170099 0.00418508 0
-0.00225516 0.00408623 0
-0.00279732 0.00397783 0
-0.00332696 0.00386179 0
-0.00384178 0.00373873 0
-0.00434055 0.00360889 0
-0.00482179 0.00347249 0
-0.00528424 0.00332975 0
-0.00572665 0.00318092 0
-0.00614788 0.00302629 0
-0.00654686 0.00286618 0
-0.00692256 0.00270093 0
-0.00727405 0.00253087 0
-0.00760047 0.00235636 0
-0.00790102 0.00217776 0
-0.00817497 0.00199545 0
-0.00842168 0.00180979 0
-0.00864056 0.00162116 0
-0.0088311 0.00142992 0
-0.00899288 0.00123646 0
-0.00912551 0.00104115 0
-0.00922872 0.000844367 0
-0.00930226 0.000646485 0
-0.00934599 0.000447882 0
-0.00935981 0.000248938 0
-0.00934373 5.0034e-005 0
-0.00929778 -0.000148447 0
-0.00922211 -0.00034612 0
-0.0091169 -0.000542593 0
-0.00898244 -0.000737473 0
-0.00881907 -0.000930362 0
-0.00862721 -0.00112085 0
-0.00840736 -0.00130854 0
-0.00816009 -0.00149301 0
-0.00788605 -0.00167383 0
-0.00758598 -0.00185058 0
-0.00726069 -0.00202282 0
-0.00691106 -0.0021901 0
-0.00653806 -0.00235196 0
-0.00614274 -0.00250794 0
-0.00572623 -0.00265755 0
-0.00528972 -0.00280029 0
-0.00483448 -0.00293561 0
-0.00436176 -0.00306294 0
-0.00387312 -0.00318164 0
-0.00336938 -0.00329088 0
-0.00285318 -0.00338941 0
-0.00232294 -0.00347481 0
-0.00178617 -0.00354184 0
-0.00123361 -0.00358021 0
-0.000685229 -0.00357475 0
-0.000143183 -0.00351293 0
0.000442199 -0.00339659 0
0.000659221 -0.00316853 0
0.00180013 -0.0023869 0
0 0 0
0 0 0
0.00260789 0.00275834 0
0.00112912 0.00394509 0
0.00108948 0.00448552 0
0.000442171 0.00476696 0
-8.69641e-005 0.00488802 0
-0.000670997 0.00489692 0
-0.0012499 0.004841 0
-0.00182317 0.00475073 0
-0.00238913 0.00464221 0
-0.00294296 0.00452188 0
-0.00348408 0.00439208 0
-0.00401011 0.00425365 0
-0.0045198 0.00410696 0
-0.00501158 0.00395231 0
-0.00548415 0.00379001 0
-0.00593623 0.00362041 0
-0.00636663 0.00344387 0
-0.00677424 0.00326077 0
-0.00715805 0.00307153 0
-0.00751708 0.00287656 0
-0.00785046 0.00267629 0
-0.00815738 0.00247117 0
-0.00843712 0.00226163 0
-0.008689 0.00204811 0
-0.00891246 0.00183107 0
-0.00910697 0.00161094 0
-0.00927209 0.00138818 0
-0.00940746 0.00116324 0
-0.00951278 0.000936554 0
-0.00958782 0.000708578 0
-0.00963242 0.000479761 0
-0.00964649 0.000250551 0
-0.00963003 2.14007e-005 0
-0.00958309 -0.000207234 0
-0.00950578 -0.000434895 0
-0.00939831 -0.00066112 0
-0.00926095 -0.00088544 0
-0.00909405 -0.00110738 0
-0.00889801 -0.00132646 0
-0.00867334 -0.0015422 0
-0.0084206 -0.0017541 0
-0.00814045 -0.00196166 0
-0.00783362 -0.00216436 0
-0.0075009 -0.0023617 0
-0.00714319 -0.00255315 0
-0.00676145 -0.00273816 0
-0.00635673 -0.0029162 0
-0.00593013 -0.00308671 0
-0.00548283 -0.00324911 0
-0.00501611 -0.00340281 0
-0.00453117 -0.00354721 0
-0.00402954 -0.00368162 0
-0.00351202 -0.00380524 0
-0.0029812 -0.00391685 0
-0.00243551 -0.00401395 0
-0.00188245 -0.004091 0
-0.00131313 -0.00413618 0
-0.000747706 -0.00413089 0
-0.000190286 -0.00405374 0
0.000406315 -0.00389281 0
0.000632548 -0.0035699 0
0.00175311 -0.00262615 0
0 0 0
0 0 0
0.00255977 0.002977 0
0.00108687 0.00432672 0
0.00103233 0.00497554 0
0.000372388 0.00531723 0
-0.000169034 0.00546553 0
-0.000765598 0.00548251 0
-0.0013561 0.00542484 0
-0.00194082 0.0053276 0
-0.00251786 0.00520903 0
-0.00308253 0.00507642 0
-0.00363422 0.00493248 0
-0.00417054 0.00477824 0
-0.00469017 0.0046142 0
-0.00519153 0.00444077 0
-0.00567327 0.00425837 0
-0.00613407 0.0040674 0
-0.00657274 0.00386832 0
-0.00698813 0.00366159 0
-0.0073792 0.00344771 0
-0.00774498 0.00322718 0
-0.00808458 0.00300048 0
-0.00839719 0.00276815 0
-0.00868207 0.0025307 0
-0.00893855 0.00228864 0
-0.00916606 0.0020425 0
-0.00936407 0.0017928 0
-0.00953215 0.00154005 0
-0.00966993 0.00128478 0
-0.0097771 0.00102751 0
-0.00985344 0.000768754 0
-0.0098988 0.00050903 0
-0.00991308 0.000248861 0
-0.00989626 -1.12304e-005 0
-0.0098484 -0.000270718 0
-0.00976961 -0.000529071 0
-0.0096601 -0.000785755 0
-0.00952012 -0.00104023 0
-0.00935001 -0.00129194 0
-0.00915019 -0.00154034 0
-0.00892115 -0.00178486 0
-0.00866345 -0.00202493 0
-0.00837772 -0.00225997 0
-0.0080647 -0.00248939 0
-0.00772519 -0.00271259 0
-0.00736006 -0.00292897 0
-0.00697027 -0.00313791 0
-0.00655685 -0.0033388 0
-0.00612092 -0.00353101 0
-0.00566364 -0.0037139 0
-0.00518626 -0.00388683 0
-0.00469 -0.00404914 0
-0.00417637 -0.00420015 0
-0.00364618 -0.00433904 0
-0.00310201 -0.00446459 0
-0.00254238 -0.00457418 0
-0.00197482 -0.00466182 0
-0.00139099 -0.00471394 0
-0.00081104 -0.00470789 0
-0.000241 -0.00461291 0
0.000364866 -0.00440246 0
0.000600519 -0.00397858 0
0.00170278 -0.00286797 0
0 0 0
0 0 0
0.00251269 0.00320209 0
0.00104477 0.0047176 0
0.000974804 0.00547665 0
0.000301397 0.00587918 0
-0.000253334 0.00605458 0
-0.00086364 0.00607928 0
-0.00146695 0.0060195 0
-0.00206429 0.00591502 0
-0.00265344 0.00578618 0
-0.0032299 0.00564107 0
-0.00379301 0.00548278 0
-0.00434037 0.00531249 0
-0.00487064 0.00513084 0
-0.00538219 0.00493834 0
-0.00587366 0.00473549 0
-0.0063437 0.00452279 0
-0.00679108 0.00430079 0
-0.00721467 0.00407004 0
-0.00761338 0.0038311 0
-0.00798625 0.00358456 0
-0.00833237 0.003331 0
-0.00865093 0.00307102 0
-0.00894118 0.0028052 0
-0.00920246 0.00253415 0
-0.00943419 0.00225846 0
-0.00963585 0.00197873 0
-0.009807 0.00169555 0
-0.00994728 0.0014095 0
-0.0100564 0.00112119 0
-0.0101341 0.000831192 0
-0.0101802 0.000540106 0
-0.0101947 0.000248519 0
-0.0101775 -4.29758e-005 0
-0.0101286 -0.000333782 0
-0.0100483 -0.000623297 0
-0.00993665 -0.000910915 0
-0.00979393 -0.00119602 0
-0.00962047 -0.00147799 0
-0.00941668 -0.0017562 0
-0.00918304 -0.00203 0
-0.00892011 -0.00229875 0
-0.00862852 -0.00256179 0
-0.00830899 -0.00281844 0
-0.0079623 -0.00306803 0
-0.00758933 -0.00330988 0
-0.00719104 -0.00354329 0
-0.00676844 -0.00376757 0
-0.00632266 -0.00398203 0
-0.00585484 -0.00418595 0
-0.00536625 -0.00437865 0
-0.00485811 -0.00455943 0
-0.00433195 -0.00472758 0
-0.00378859 -0.00488226 0
-0.00323068 -0.00502221 0
-0.00265687 -0.00514464 0
-0.0020747 -0.00524299 0
-0.00147648 -0.00530182 0
-0.000882183 -0.00529404 0
-0.000299666 -0.00517929 0
0.000316026 -0.00491605 0
0.000562896 -0.00438764 0
0.00165007 -0.00310858 0
0 0 0
0 0 0
0.00246677 0.00343534 0
0.00100273 0.0051206 0
0.000916407 0.00599209 0
0.000228107 0.00645635 0
-0.000341511 0.0066589 0
-0.000967321 0.00669101 0
-0.00158522 0.00662864 0
-0.00219693 0.00651644 0
-0.00279987 0.00637686 0
-0.0033897 0.00621881 0
-0.00396571 0.0060457 0
-0.00452548 0.00585888 0
-0.00506767 0.0056591 0
-0.00559062 0.00544698 0
-0.00609293 0.00522311 0
-0.00657324 0.00498809 0
-0.00703031 0.00474256 0
-0.00746297 0.00448714 0
-0.00787014 0.00422251 0
-0.00825083 0.00394931 0
-0.00860415 0.00366823 0
-0.00892926 0.00337993 0
-0.00922542 0.00308509 0
-0.00949198 0.00278438 0
-0.00972835 0.00247848 0
-0.00993401 0.00216805 0
-0.0101085 0.00185376 0
-0.0102515 0.00153627 0
-0.0103628 0.00121625 0
-0.0104419 0.000894356 0
-0.0104889 0.000571241 0
-0.0105036 0.000247567 0
-0.010486 -7.60025e-005 0
-0.0104361 -0.000398803 0
-0.0103541 -0.000720163 0
-0.01024 -0.0010394 0
-0.0100943 -0.00135584 0
-0.00991716 -0.00166878 0
-0.00970901 -0.00197751 0
-0.00947032 -0.00228132 0
-0.00920164 -0.00257947 0
-0.0089036 -0.00287124 0
-0.00857689 -0.00315587 0
-0.00822231 -0.00343261 0
-0.00784071 -0.00370069 0
-0.00743305 -0.00395933 0
-0.00700036 -0.00420777 0
-0.00654373 -0.00444524 0
-0.00606435 -0.00467096 0
-0.00556348 -0.00488418 0
-0.00504235 -0.00508415 0
-0.00450253 -0.00527011 0
-0.0039449 -0.00544121 0
-0.00337215 -0.0055961 0
-0.0027831 -0.00573178 0
-0.00218533 -0.005841 0
-0.00157175 -0.0059063 0
-0.000962052 -0.00589593 0
-0.000365843 -0.00575972 0
0.000261417 -0.00544091 0
0.000521837 -0.00480464 0
0.00159654 -0.00335397 0
0 0 0
0 0 0
0.00242196 0.00367625 0
0.000960405 0.00553554 0
0.000856677 0.00652196 0
0.000151904 0.00704907 0
-0.000434297 0.00727899 0
-0.00107747 0.00731828 0
-0.00171186 0.00725292 0
-0.00233983 0.00713254 0
-0.0029584 0.00698175 0
-0.00356337 0.00681028 0
-0.00415394 0.00662185 0
-0.00472772 0.00641799 0
-0.00528331 0.00619955 0
-0.00581904 0.00596726 0
-0.0063335 0.00572179 0
-0.0068253 0.00546386 0
-0.00729317 0.00519418 0
-0.00773594 0.00491347 0
-0.00815251 0.0046225 0
-0.00854191 0.004322 0
-0.0089032 0.00401274 0
-0.00923558 0.00369547 0
-0.0095383 0.00337095 0
-0.00981069 0.00303993 0
-0.0100522 0.00270316 0
-0.0102623 0.00236139 0
-0.0104405 0.00201536 0
-0.0105865 0.00166579 0
-0.0107001 0.00131342 0
-0.0107809 0.000958982 0
-0.0108288 0.000603197 0
-0.0108437 0.000246793 0
-0.0108256 -0.000109499 0
-0.0107746 -0.000464947 0
-0.0106907 -0.000818811 0
-0.0105741 -0.00117034 0
-0.010425 -0.00151879 0
-0.0102438 -0.00186337 0
-0.0100309 -0.00220333 0
-0.0097866 -0.00253785 0
-0.00951158 -0.00286613 0
-0.00920641 -0.00318736 0
-0.00887177 -0.00350071 0
-0.00850846 -0.00380534 0
-0.00811733 -0.00410039 0
-0.00769932 -0.00438501 0
-0.00725546 -0.00465836 0
-0.00678687 -0.00491957 0
-0.00629472 -0.00516781 0
-0.00578031 -0.00540226 0
-0.00524489 -0.00562209 0
-0.00469008 -0.00582651 0
-0.00411682 -0.00601459 0
-0.00352786 -0.00618489 0
-0.00292221 -0.00633413 0
-0.00230743 -0.00645433 0
-0.00167709 -0.00652592 0
-0.00105046 -0.00651225 0
-0.000438888 -0.00635323 0
0.000201967 -0.00597662 0
0.000478106 -0.00522956 0
0.00154277 -0.00360408 0
0 0 0
0 0 0
0.00237824 0.00392577 0
0.000917625 0.00596407 0
0.000795321 0.00706827 0
7.23513e-005 0.00765958 0
-0.000532221 0.00791726 0
-0.00119469 0.0079636 0
-0.00184751 0.00789484 0
-0.00249369 0.00776577 0
-0.00312979 0.00760321 0
-0.00375172 0.00741772 0
-0.0043586 0.00721338 0
-0.00494802 0.00699184 0
-0.00551858 0.00675408 0
-0.00606856 0.00650093 0
-0.00659653 0.00623317 0
-0.00710109 0.00595159 0
-0.00758095 0.00565701 0
-0.00803491 0.00535026 0
-0.0084619 0.00503219 0
-0.00886089 0.00470362 0
-0.009231 0.00436541 0
-0.00957138 0.0040184 0
-0.00988131 0.00366343 0
-0.0101601 0.00330134 0
-0.0104073 0.00293294 0
-0.0106222 0.00255907 0
-0.0108045 0.00218053 0
-0.0109539 0.00179814 0
-0.01107 0.00141267 0
-0.0111525 0.00102495 0
-0.0112015 0.000635744 0
-0.0112167 0.000245861 0
-0.0111981 -0.000143907 0
-0.0111458 -0.000532762 0
-0.0110598 -0.000919897 0
-0.0109404 -0.0013045 0
-0.0107877 -0.00168574 0
-0.0106021 -0.00206277 0
-0.0103838 -0.00243475 0
-0.0101335 -0.00280081 0
-0.0098515 -0.00316006 0
-0.00953851 -0.0035116 0
-0.00919518 -0.00385452 0
-0.00882228 -0.00418789 0
-0.00842067 -0.00451079 0
-0.00799128 -0.00482226 0
-0.00753516 -0.00512137 0
-0.00705341 -0.00540719 0
-0.00654723 -0.00567878 0
-0.00601795 -0.00593525 0
-0.00546686 -0.00617572 0
-0.00489561 -0.00639929 0
-0.00430523 -0.00660498 0
-0.00369851 -0.00679121 0
-0.00307468 -0.00695441 0
-0.00244126 -0.00708575 0
-0.00179244 -0.00716353 0
-0.00114707 -0.00714599 0
-0.000518182 -0.00696296 0
0.000138451 -0.00652644 0
0.000432379 -0.0056655 0
0.0014892 -0.003861 0
0 0 0
0 0 0
0.00233555 0.00418437 0
0.000874188 0.0064072 0
0.000732033 0.00763236 0
-1.09604e-005 0.00828943 0
-0.000635769 0.00857536 0
-0.0013195 0.00862867 0
-0.00199274 0.00855611 0
-0.00265911 0.00841781 0
-0.00331465 0.00824287 0
-0.00395541 0.00804273 0
-0.00458038 0.00782178 0
-0.00518715 0.00758185 0
-0.00577427 0.00732404 0
-0.00634 0.00704926 0
-0.00688288 0.00675841 0
-0.0074015 0.00645238 0
-0.00789454 0.00613208 0
-0.00836082 0.00579846 0
-0.00879922 0.00545244 0
-0.00920874 0.00509496 0
-0.00958849 0.00472696 0
-0.00993763 0.00434938 0
-0.0102554 0.00396313 0
-0.0105413 0.00356913 0
-0.0107945 0.00316829 0
-0.0110148 0.00276151 0
-0.0112015 0.00234966 0
-0.0113545 0.00193363 0
-0.0114734 0.00151428 0
-0.0115579 0.00109247 0
-0.011608 0.000669054 0
-0.0116235 0.000244896 0
-0.0116044 -0.00017915 0
-0.0115507 -0.00060222 0
-0.0114625 -0.00102344 0
-0.01134 -0.00144194 0
-0.0111834 -0.00185681 0
-0.0109929 -0.00226715 0
-0.010769 -0.00267203 0
-0.010512 -0.00307051 0
-0.0102224 -0.00346162 0
-0.00990093 -0.00384438 0
-0.00954813 -0.0042178 0
-0.00916479 -0.00458085 0
-0.00875175 -0.00493253 0
-0.00830996 -0.00527178 0
-0.00784044 -0.00559759 0
-0.00734432 -0.00590892 0
-0.00682283 -0.00620476 0
-0.0062773 -0.00648412 0
-0.00570908 -0.00674603 0
-0.00511986 -0.00698951 0
-0.00451076 -0.00721348 0
-0.00388464 -0.00741621 0
-0.00324089 -0.0075938 0
-0.00258703 -0.00773655 0
-0.00191785 -0.00782049 0
-0.00125173 -0.00779864 0
-0.000603436 -0.00759053 0
7.12155e-005 -0.0070921 0
0.000384894 -0.00611401 0
0.001436 -0.00412563 0
0 0 0
0 0 0
0.00229385 0.00445288 0
0.000829945 0.00686636 0
0.000666561 0.00821599 0
-9.83974e-005 0.00894055 0
-0.000745403 0.00925534 0
-0.00145244 0.00931556 0
-0.00214815 0.00923882 0
-0.00283673 0.00909072 0
-0.00351369 0.00890274 0
-0.00417517 0.0086872 0
-0.00482005 0.00844887 0
-0.00544589 0.00818975 0
-0.0060512 0.00791104 0
-0.00663421 0.00761376 0
-0.00719343 0.00729892 0
-0.00772742 0.00696752 0
-0.00823487 0.00662059 0
-0.00871457 0.00625915 0
-0.00916541 0.00588425 0
-0.00958638 0.00549692 0
-0.0099766 0.0050982 0
-0.0103352 0.0046891 0
-0.0106616 0.00427065 0
-0.010955 0.00384384 0
-0.0112149 0.00340966 0
-0.0114408 0.00296907 0
-0.0116324 0.00252304 0
-0.0117893 0.0020725 0
-0.0119111 0.00161839 0
-0.0119978 0.00116163 0
-0.0120491 0.000703142 0
-0.0120649 0.000243842 0
-0.0120453 -0.000215352 0
-0.0119901 -0.000673515 0
-0.0118996 -0.00112972 0
-0.0117738 -0.00158301 0
-0.0116129 -0.00203243 0
-0.0114173 -0.00247701 0
-0.0111872 -0.00291574 0
-0.0109231 -0.00334761 0
-0.0106254 -0.00377157 0
-0.0102947 -0.00418655 0
-0.00993166 -0.00459148 0
-0.00953702 -0.00498524 0
-0.0091116 -0.00536673 0
-0.00865636 -0.0057348 0
-0.0081723 -0.00608833 0
-0.00766059 -0.00642619 0
-0.00712245 -0.00674726 0
-0.00655925 -0.00705046 0
-0.00597238 -0.00733471 0
-0.0053636 -0.00759895 0
-0.00473409 -0.00784194 0
-0.00408679 -0.00806183 0
-0.00342128 -0.00825432 0
-0.00274502 -0.00840883 0
-0.00205345 -0.00849901 0
-0.00136442 -0.00847252 0
-0.000694527 -0.00823833 0
4.44397e-007 -0.00767591 0
0.000335791 -0.00657708 0
0.00138325 -0.00439919 0
0 0 0
0 0 0
0.00225309 0.00473207 0
0.000784753 0.00734295 0
0.00059866 0.00882093 0
-0.000190317 0.0096149 0
-0.000861584 0.00995923 0
-0.00159407 0.0100263 0
-0.00231436 0.00994499 0
-0.00302723 0.00978648 0
-0.00372764 0.00958471 0
-0.0044118 0.00935299 0
-0.00507845 0.00909642 0
-0.00572513 0.00881719 0
-0.00635028 0.00851663 0
-0.00695212 0.00819588 0
-0.00752913 0.00785606 0
-0.00807983 0.00749827 0
-0.00860292 0.00712367 0
-0.00909716 0.00673338 0
-0.00956145 0.00632856 0
-0.0099948 0.00591035 0
-0.0103963 0.00547988 0
-0.0107652 0.00503827 0
-0.0111007 0.00458661 0
-0.0114023 0.004126 0
-0.0116693 0.0036575 0
-0.0119014 0.00318215 0
-0.0120981 0.00270098 0
-0.0122591 0.002215 0
-0.0123842 0.0017252 0
-0.0124731 0.00123257 0
-0.0125258 0.000738089 0
-0.012542 0.000242724 0
-0.0125217 -0.000252546 0
-0.012465 -0.000746741 0
-0.012372 -0.00123887 0
-0.0122427 -0.00172792 0
-0.0120774 -0.00221288 0
-0.0118762 -0.0026927 0
-0.0116396 -0.0031663 0
-0.0113678 -0.00363261 0
-0.0110614 -0.00409048 0
-0.0107208 -0.00453877 0
-0.0103468 -0.00497632 0
-0.00994004 -0.00540191 0
-0.00950131 -0.00581433 0
-0.00903156 -0.00621235 0
-0.00853183 -0.00659472 0
-0.00800326 -0.00696022 0
-0.00744711 -0.00730762 0
-0.00686478 -0.0076357 0
-0.0062577 -0.00794329 0
-0.00562767 -0.0082292 0
-0.00497598 -0.00849208 0
-0.00430563 -0.00872986 0
-0.00361637 -0.00893788 0
-0.00291564 -0.00910457 0
-0.00219949 -0.00920118 0
-0.00148529 -0.0091698 0
-0.000791486 -0.00890854 0
-7.38301e-005 -0.00827999 0
0.0002851 -0.00705651 0
0.001331 -0.00468274 0
0 0 0
0 0 0
0.00221323 0.00502286 0
0.000738479 0.0078385 0
0.000528089 0.00944908 0
-0.00028708 0.0103146 0
-0.000984787 0.0106892 0
-0.00174495 0.0107632 0
-0.00249205 0.0106768 0
-0.00323138 0.0105072 0
-0.00395733 0.0102908 0
-0.00466617 0.010042 0
-0.00535651 0.00976625 0
-0.00602583 0.0094659 0
-0.00667253 0.00914244 0
-0.00729479 0.00879713 0
-0.00789104 0.00843121 0
-0.00845981 0.00804591 0
-0.00899976 0.00764249 0
-0.00950967 0.00722221 0
-0.00998844 0.00678634 0
-0.0104351 0.00633611 0
-0.0108487 0.00587277 0
-0.0112285 0.00539754 0
-0.0115738 0.0049116 0
-0.0118841 0.00441612 0
-0.0121587 0.00391226 0
-0.0123974 0.00340112 0
-0.0125996 0.0028838 0
-0.0127651 0.00236137 0
-0.0128936 0.0018349 0
-0.0129849 0.00130541 0
-0.0130389 0.000773952 0
-0.0130555 0.000241541 0
-0.0130347 -0.000290792 0
-0.0129764 -0.000822013 0
-0.0128808 -0.00135108 0
-0.0127478 -0.00187692 0
-0.0125777 -0.00239846 0
-0.0123707 -0.00291459 0
-0.0121271 -0.00342417 0
-0.0118473 -0.00392603 0
-0.0115316 -0.00441897 0
-0.0111805 -0.00490175 0
-0.0107948 -0.00537311 0
-0.010375 -0.00583175 0
-0.00992204 -0.00627633 0
-0.00943675 -0.00670554 0
-0.00892018 -0.007118 0
-0.00837348 -0.00751235 0
-0.00779793 -0.00788726 0
-0.00719496 -0.00824139 0
-0.00656603 -0.00857343 0
-0.00591302 -0.00888206 0
-0.00523728 -0.00916578 0
-0.00454189 -0.00942231 0
-0.00382679 -0.00964658 0
-0.00309939 -0.009826 0
-0.00235635 -0.0099293 0
-0.00161458 -0.00989284 0
-0.000894453 -0.00960354 0
-0.000151666 -0.00890659 0
0.000232797 -0.00755417 0
0.00127925 -0.00497738 0
0 0 0
0 0 0
0.00217421 0.0053262 0
0.000690983 0.00835465 0
0.000454595 0.0101025 0
-0.000389066 0.0110417 0
-0.00111552 0.0114475 0
-0.00190573 0.0115283 0
-0.00268195 0.0114364 0
-0.00344999 0.011255 0
-0.00420367 0.0110231 0
-0.00493927 0.0107563 0
-0.00565527 0.0104602 0
-0.00634909 0.0101376 0
-0.00701908 0.00979011 0
-0.00766336 0.00941903 0
-0.00828035 0.00902578 0
-0.00886855 0.00861171 0
-0.00942661 0.00817823 0
-0.00995331 0.0077267 0
-0.0104475 0.00725852 0
-0.0109084 0.00677505 0
-0.0113349 0.00627763 0
-0.0117263 0.00576758 0
-0.0120821 0.00524618 0
-0.0124016 0.0047147 0
-0.0126843 0.00417434 0
-0.0129298 0.00362631 0
-0.0131379 0.00307177 0
-0.013308 0.00251184 0
-0.0134402 0.00194764 0
-0.0135341 0.00138027 0
-0.0135896 0.0008108 0
-0.0136067 0.000240311 0
-0.0135853 -0.000330123 0
-0.0135253 -0.000899421 0
-0.0134269 -0.00146649 0
-0.0132901 -0.00203021 0
-0.0131151 -0.00258945 0
-0.0129019 -0.00314303 0
-0.012651 -0.00368975 0
-0.0123626 -0.00422838 0
-0.0120371 -0.00475762 0
-0.011675 -0.00527616 0
-0.0112768 -0.00578263 0
-0.0108433 -0.00627563 0
-0.0103751 -0.00675373 0
-0.00987322 -0.00721546 0
-0.00933865 -0.00765936 0
-0.00877253 -0.00808392 0
-0.00817615 -0.00848767 0
-0.00755098 -0.00886913 0
-0.00689852 -0.00922685 0
-0.0062207 -0.00955936 0
-0.00551896 -0.009865 0
-0.00479644 -0.0101413 0
-0.00405329 -0.0103826 0
-0.00329687 -0.0105754 0
-0.00252451 -0.0106858 0
-0.00175264 -0.0106441 0
-0.00100366 -0.0103258 0
-0.000233196 -0.00955799 0
0.000178816 -0.00807193 0
0.00122798 -0.00528424 0
0 0 0
0 0 0
0.00213597 0.00564311 0
0.000642119 0.00889314 0
0.000377906 0.0107832 0
-0.000496684 0.0117988 0
-0.00125433 0.0122365 0
-0.00207707 0.0123242 0
-0.00288485 0.0122262 0
-0.00368398 0.0120321 0
-0.00446765 0.0117838 0
-0.00523218 0.0114978 0
-0.00597588 0.0111803 0
-0.00669612 0.0108342 0
-0.00739118 0.0104613 0
-0.00805913 0.0100631 0
-0.00869837 0.00964119 0
-0.00930736 0.00919698 0
-0.00988477 0.00873204 0
-0.0104294 0.0082479 0
-0.0109401 0.00774605 0
-0.011416 0.00722799 0
-0.0118562 0.00669518 0
-0.0122599 0.00614902 0
-0.0126267 0.00559091 0
-0.0129559 0.00502219 0
-0.0132471 0.00444416 0
-0.0134999 0.00385807 0
-0.013714 0.00326516 0
-0.0138892 0.00266662 0
-0.0140251 0.0020636 0
-0.0141217 0.00145726 0
-0.0141789 0.0008487 0
-0.0141965 0.000239053 0
-0.0141744 -0.000370569 0
-0.0141128 -0.000979044 0
-0.0140116 -0.00158523 0
-0.0138708 -0.00218797 0
-0.0136905 -0.00278608 0
-0.013471 -0.00337832 0
-0.0132125 -0.00396344 0
-0.0129151 -0.00454011 0
-0.0125793 -0.00510698 0
-0.0122055 -0.00566263 0
-0.0117943 -0.00620561 0
-0.0113461 -0.00673441 0
-0.0108619 -0.00724748 0
-0.0103424 -0.00774322 0
-0.00978864 -0.00822003 0
-0.0092018 -0.00867628 0
-0.00858315 -0.00911033 0
-0.00793417 -0.00952055 0
-0.00725643 -0.00990533 0
-0.0065519 -0.010263 0
-0.00582211 -0.0105918 0
-0.00507027 -0.0108889 0
-0.00429673 -0.0111483 0
-0.00350884 -0.0113553 0
-0.00270456 -0.0114732 0
-0.00189993 -0.0114262 0
-0.00111942 -0.0110778 0
-0.000318616 -0.0102366 0
0.000123054 -0.00861177 0
0.00117716 -0.0056045 0
0 0 0
0 0 0
0.00209846 0.00597469 0
0.000591728 0.0094558 0
0.000297724 0.0114936 0
-0.000610383 0.0125881 0
-0.00140182 0.0130588 0
-0.00225973 0.0131532 0
-0.00310165 0.0130486 0
-0.00393434 0.012841 0
-0.00475039 0.0125752 0
-0.00554611 0.0122687 0
-0.00631962 0.0119285 0
-0.00706826 0.0115575 0
-0.00779021 0.0111578 0
-0.00848351 0.010731 0
-0.00914652 0.0102789 0
-0.0097777 0.00980301 0
-0.0103757 0.00930511 0
-0.0109393 0.00878684 0
-0.0114675 0.00824985 0
-0.0119592 0.00769575 0
-0.0124139 0.00712611 0
-0.0128306 0.00654247 0
-0.0132089 0.00594631 0
-0.0135483 0.00533905 0
-0.0138484 0.00472207 0
-0.0141088 0.00409671 0
-0.0143293 0.00346424 0
-0.0145096 0.00282592 0
-0.0146495 0.00218294 0
-0.014749 0.00153648 0
-0.0148078 0.000887719 0
-0.014826 0.000237794 0
-0.0148034 -0.000412144 0
-0.01474 -0.00106094 0
-0.0146358 -0.00170741 0
-0.014491 -0.00235037 0
-0.0143054 -0.00298857 0
-0.0140793 -0.00362074 0
-0.0138128 -0.00424556 0
-0.0135062 -0.00486164 0
-0.0131596 -0.00546755 0
-0.0127736 -0.00606179 0
-0.0123486 -0.00664278 0
-0.0118851 -0.00720893 0